# USER_LATT cell with dimension 1 x 1 x 1 and a = 1
        32  atoms
         1  atom types

 0.     9.83800000000000  xlo xhi
 0.     8.51995600000000  ylo yhi
 0.    24.59500000000000  zlo zhi
    4.91900000000000     0.00000000000000     0.00000000000000 xy xz yz

Masses

1 12.0112

Atoms

1 1     0.00371390676354     0.00000000000000     0.00928476690885
2 1     2.45950000000000     0.00000000000000     0.00000000000000
3 1     4.91900000000000     0.00000000000000     0.00000000000000
4 1     7.37850000000000     0.00000000000000     0.00000000000000
5 1     1.22975000000000     2.12998900000000     0.00000000000000
6 1     3.68925000000000     2.12998900000000     0.00000000000000
7 1     6.14875000000000     2.12998900000000     0.00000000000000
8 1     8.60825000000000     2.12998900000000     0.00000000000000
9 1     2.45950000000000     4.25997800000000     0.00000000000000
10 1     4.91900000000000     4.25997800000000     0.00000000000000
11 1     7.37850000000000     4.25997800000000     0.00000000000000
12 1     9.83800000000000     4.25997800000000     0.00000000000000
13 1     3.68925000000000     6.38996700000000     0.00000000000000
14 1     6.14875000000000     6.38996700000000     0.00000000000000
15 1     8.60825000000000     6.38996700000000     0.00000000000000
16 1    11.06775000000000     6.38996700000000     0.00000000000000
17 1     1.22974877025000     0.70999562333700     0.00000000000000
18 1     3.68924877025000     0.70999562333700     0.00000000000000
19 1     6.14874877025000     0.70999562333700     0.00000000000000
20 1     8.60824877025000     0.70999562333700     0.00000000000000
21 1     2.45949877025000     2.83998462333700     0.00000000000000
22 1     4.91899877025000     2.83998462333700     0.00000000000000
23 1     7.37849877025000     2.83998462333700     0.00000000000000
24 1     9.83799877025000     2.83998462333700     0.00000000000000
25 1     3.68924877025000     4.96997362333700     0.00000000000000
26 1     6.14874877025000     4.96997362333700     0.00000000000000
27 1     8.60824877025000     4.96997362333700     0.00000000000000
28 1    11.06774877025000     4.96997362333700     0.00000000000000
29 1     4.91899877025000     7.09996262333700     0.00000000000000
30 1     7.37849877025000     7.09996262333700     0.00000000000000
31 1     9.83799877025000     7.09996262333700     0.00000000000000
32 1    12.29749877025000     7.09996262333700     0.00000000000000
