LAMMPS (24 Apr 2013)
Reading data file ...
  triclinic box = (0 0 0) to (9.838 8.51996 24.595) with tilt (4.919 0 0)
  1 by 1 by 1 MPI processor grid
  32 atoms
Setting up run ...
Memory usage per processor = 1.43521 Mbytes
Step Temp E_pair E_mol TotEng Press 
       0            0   -234.95415            0   -234.95415     30613.88 
-234.95415415161295414
       1            0   -234.95415            0   -234.95415     30613.88 
Loop time of 0.00015521 on 1 procs for 1 steps with 32 atoms

Pair  time (%) = 0.000123024 (79.2627)
Neigh time (%) = 0 (0)
Comm  time (%) = 9.53674e-07 (0.614439)
Outpt time (%) = 7.15256e-06 (4.60829)
Other time (%) = 2.40803e-05 (15.5146)

Nlocal:    32 ave 32 max 32 min
Histogram: 1 0 0 0 0 0 0 0 0 0
Nghost:    194 ave 194 max 194 min
Histogram: 1 0 0 0 0 0 0 0 0 0
Neighs:    0 ave 0 max 0 min
Histogram: 1 0 0 0 0 0 0 0 0 0
FullNghs:  576 ave 576 max 576 min
Histogram: 1 0 0 0 0 0 0 0 0 0

Total # of neighbors = 576
Ave neighs/atom = 18
Neighbor list builds = 0
Dangerous builds = 0
