32   
1    

1    
  0.0037139067635410   0.0000000000000000   0.0092847669088526
  -0.5619160000    0.0024831900   -0.1076180000
   0.0167222000    0.0226489000   -0.0120367000
  -0.0001973390   -0.0001196220    0.0000000000
   0.0164539000   -0.0226503000   -0.0115781000
  -0.0171995000   -0.0032887900   -0.0117128000
  -0.0001973390   -0.0001196220    0.0000000000
  -0.0001973390   -0.0001196220    0.0000000000
  -0.0169622000    0.0031340500   -0.0118967000
  -0.0001973390   -0.0001196220    0.0000000000
  -0.0001973390   -0.0001196220    0.0000000000
  -0.0001973390   -0.0001196220    0.0000000000
  -0.0001973390   -0.0001196220    0.0000000000
  -0.0173298000    0.0421866000   -0.0114821000
  -0.0168241000   -0.0419779000   -0.0121245000
  -0.0001973390   -0.0001196220    0.0000000000
  -0.0001973390   -0.0001196220    0.0000000000
   0.1784420000   -0.0392233000    0.0582191000
   0.0001973390    0.0001196220    0.0000000000
   0.0001973390    0.0001196220    0.0000000000
   0.1751990000    0.0367937000    0.0607608000
   0.0001973390    0.0001196220    0.0000000000
   0.0001973390    0.0001196220    0.0000000000
   0.0001973390    0.0001196220    0.0000000000
   0.0001973390    0.0001196220    0.0000000000
   0.0001973390    0.0001196220    0.0000000000
   0.0001973390    0.0001196220    0.0000000000
   0.0001973390    0.0001196220    0.0000000000
   0.0001973390    0.0001196220    0.0000000000
   0.2426250000   -0.0005847620    0.0594692000
   0.0001973390    0.0001196220    0.0000000000
   0.0001973390    0.0001196220    0.0000000000
   0.0001973390    0.0001196220    0.0000000000
